M 0.00000 48 (1.00, 1.00, 0.00), (1.00, 1.00), 11.42
M 0.00000 49 (800.00, 800.00, 0.00), (800.00, 800.00), 11.26
M 0.00000 0 (225.51, 401.65, 0.00), (225.51, 401.65), 10.00
M 1.00000 0 (225.51, 401.65, 0.00), (216.44, 401.65), 9.07
M 1.00000 1 (401.65, 213.41, 0.00), (401.65, 213.41), 10.00
M 2.00000 0 (216.44, 401.65, 0.00), (209.03, 401.65), 7.41
M 2.00000 1 (401.65, 213.41, 0.00), (401.65, 222.65), 9.23
M 2.00000 2 (801.65, 213.06, 0.00), (801.65, 213.06), 10.00
s 2.556838879 _48_ AGT  --- 0 cbr 512 [0 0 0 0] ------- [48:0 49:0 32 0] [0] 0 0
r 2.556838879 _48_ RTR  --- 0 cbr 512 [0 0 0 0] ------- [48:0 49:0 32 0] [0] 0 0
s 2.556838879 _48_ RTR  --- 0 AODV 48 [0 0 0 0] ------- [48:255 -1:255 30 0] [0x2 1 1 [49 0] [48 4]] (REQUEST)
r 2.557827160 _8_ RTR  --- 0 AODV 48 [0 ffffffff 30 800] ------- [48:255 -1:255 30 0] [0x2 1 1 [49 0] [48 4]] (REQUEST)
r 2.557827260 _21_ RTR  --- 0 AODV 48 [0 ffffffff 30 800] ------- [48:255 -1:255 30 0] [0x2 1 1 [49 0] [48 4]] (REQUEST)
r 2.557827497 _5_ RTR  --- 0 AODV 48 [0 ffffffff 30 800] ------- [48:255 -1:255 30 0] [0x2 1 1 [49 0] [48 4]] (REQUEST)
r 2.557827580 _44_ RTR  --- 0 AODV 48 [0 ffffffff 30 800] ------- [48:255 -1:255 30 0] [0x2 1 1 [49 0] [48 4]] (REQUEST)
r 2.557827651 _19_ RTR  --- 0 AODV 48 [0 ffffffff 30 800] ------- [48:255 -1:255 30 0] [0x2 1 1 [49 0] [48 4]] (REQUEST)
s 2.558708387 _8_ RTR  --- 0 AODV 48 [0 ffffffff 30 800] ------- [8:255 -1:255 29 0] [0x2 2 1 [49 0] [48 4]] (REQUEST)
r 2.559896486 _21_ RTR  --- 0 AODV 48 [0 ffffffff 8 800] ------- [8:255 -1:255 29 0] [0x2 2 1 [49 0] [48 4]] (REQUEST)
r 2.559896669 _48_ RTR  --- 0 AODV 48 [0 ffffffff 8 800] ------- [8:255 -1:255 29 0] [0x2 2 1 [49 0] [48 4]] (REQUEST)
r 2.559896723 _5_ RTR  --- 0 AODV 48 [0 ffffffff 8 800] ------- [8:255 -1:255 29 0] [0x2 2 1 [49 0] [48 4]] (REQUEST)
r 2.559896932 _19_ RTR  --- 0 AODV 48 [0 ffffffff 8 800] ------- [8:255 -1:255 29 0] [0x2 2 1 [49 0] [48 4]] (REQUEST)
r 2.559897057 _44_ RTR  --- 0 AODV 48 [0 ffffffff 8 800] ------- [8:255 -1:255 29 0] [0x2 2 1 [49 0] [48 4]] (REQUEST)
r 2.559897207 _29_ RTR  --- 0 AODV 48 [0 ffffffff 8 800] ------- [8:255 -1:255 29 0] [0x2 2 1 [49 0] [48 4]] (REQUEST)
s 2.560957198 _44_ RTR  --- 0 AODV 48 [0 ffffffff 30 800] ------- [44:255 -1:255 29 0] [0x2 2 1 [49 0] [48 4]] (REQUEST)
r 2.562145658 _29_ RTR  --- 0 AODV 48 [0 ffffffff 2c 800] ------- [44:255 -1:255 29 0] [0x2 2 1 [49 0] [48 4]] (REQUEST)
r 2.562145735 _19_ RTR  --- 0 AODV 48 [0 ffffffff 2c 800] ------- [44:255 -1:255 29 0] [0x2 2 1 [49 0] [48 4]] (REQUEST)
r 2.562145862 _14_ RTR  --- 0 AODV 48 [0 ffffffff 2c 800] ------- [44:255 -1:255 29 0] [0x2 2 1 [49 0] [48 4]] (REQUEST)
r 2.562145868 _8_ RTR  --- 0 AODV 48 [0 ffffffff 2c 800] ------- [44:255 -1:255 29 0] [0x2 2 1 [49 0] [48 4]] (REQUEST)
r 2.562145870 _43_ RTR  --- 0 AODV 48 [0 ffffffff 2c 800] ------- [44:255 -1:255 29 0] [0x2 2 1 [49 0] [48 4]] (REQUEST)
r 2.562145886 _21_ RTR  --- 0 AODV 48 [0 ffffffff 2c 800] ------- [44:255 -1:255 29 0] [0x2 2 1 [49 0] [48 4]] (REQUEST)
r 2.562145899 _48_ RTR  --- 0 AODV 48 [0 ffffffff 2c 800] ------- [44:255 -1:255 29 0] [0x2 2 1 [49 0] [48 4]] (REQUEST)
r 2.562145979 _5_ RTR  --- 0 AODV 48 [0 ffffffff 2c 800] ------- [44:255 -1:255 29 0] [0x2 2 1 [49 0] [48 4]] (REQUEST)
r 2.562146027 _0_ RTR  --- 0 AODV 48 [0 ffffffff 2c 800] ------- [44:255 -1:255 29 0] [0x2 2 1 [49 0] [48 4]] (REQUEST)
s 2.562238993 _21_ RTR  --- 0 AODV 48 [0 ffffffff 30 800] ------- [21:255 -1:255 29 0] [0x2 2 1 [49 0] [48 4]] (REQUEST)
s 2.562573808 _14_ RTR  --- 0 AODV 48 [0 ffffffff 2c 800] ------- [14:255 -1:255 28 0] [0x2 3 1 [49 0] [48 4]] (REQUEST)
s 2.562987997 _29_ RTR  --- 0 AODV 48 [0 ffffffff 8 800] ------- [29:255 -1:255 28 0] [0x2 3 1 [49 0] [48 4]] (REQUEST)
s 2.563284109 _0_ RTR  --- 0 AODV 48 [0 ffffffff 2c 800] ------- [0:255 -1:255 28 0] [0x2 3 1 [49 0] [48 4]] (REQUEST)
r 2.563427093 _8_ RTR  --- 0 AODV 48 [0 ffffffff 15 800] ------- [21:255 -1:255 29 0] [0x2 2 1 [49 0] [48 4]] (REQUEST)
r 2.563427230 _5_ RTR  --- 0 AODV 48 [0 ffffffff 15 800] ------- [21:255 -1:255 29 0] [0x2 2 1 [49 0] [48 4]] (REQUEST)
r 2.563427374 _48_ RTR  --- 0 AODV 48 [0 ffffffff 15 800] ------- [21:255 -1:255 29 0] [0x2 2 1 [49 0] [48 4]] (REQUEST)
r 2.563427473 _19_ RTR  --- 0 AODV 48 [0 ffffffff 15 800] ------- [21:255 -1:255 29 0] [0x2 2 1 [49 0] [48 4]] (REQUEST)
r 2.563427681 _44_ RTR  --- 0 AODV 48 [0 ffffffff 15 800] ------- [21:255 -1:255 29 0] [0x2 2 1 [49 0] [48 4]] (REQUEST)
r 2.563427771 _29_ RTR  --- 0 AODV 48 [0 ffffffff 15 800] ------- [21:255 -1:255 29 0] [0x2 2 1 [49 0] [48 4]] (REQUEST)
r 2.564806110 _19_ RTR  --- 0 AODV 48 [0 ffffffff 1d 800] ------- [29:255 -1:255 28 0] [0x2 3 1 [49 0] [48 4]] (REQUEST)
r 2.564806232 _44_ RTR  --- 0 AODV 48 [0 ffffffff 1d 800] ------- [29:255 -1:255 28 0] [0x2 3 1 [49 0] [48 4]] (REQUEST)
r 2.564806383 _0_ RTR  --- 0 AODV 48 [0 ffffffff 1d 800] ------- [29:255 -1:255 28 0] [0x2 3 1 [49 0] [48 4]] (REQUEST)
r 2.564806438 _1_ RTR  --- 0 AODV 48 [0 ffffffff 1d 800] ------- [29:255 -1:255 28 0] [0x2 3 1 [49 0] [48 4]] (REQUEST)
r 2.564806439 _40_ RTR  --- 0 AODV 48 [0 ffffffff 1d 800] ------- [29:255 -1:255 28 0] [0x2 3 1 [49 0] [48 4]] (REQUEST)
r 2.564806466 _41_ RTR  --- 0 AODV 48 [0 ffffffff 1d 800] ------- [29:255 -1:255 28 0] [0x2 3 1 [49 0] [48 4]] (REQUEST)
r 2.564806466 _14_ RTR  --- 0 AODV 48 [0 ffffffff 1d 800] ------- [29:255 -1:255 28 0] [0x2 3 1 [49 0] [48 4]] (REQUEST)
r 2.564806486 _43_ RTR  --- 0 AODV 48 [0 ffffffff 1d 800] ------- [29:255 -1:255 28 0] [0x2 3 1 [49 0] [48 4]] (REQUEST)
r 2.564806496 _5_ RTR  --- 0 AODV 48 [0 ffffffff 1d 800] ------- [29:255 -1:255 28 0] [0x2 3 1 [49 0] [48 4]] (REQUEST)
r 2.564806549 _21_ RTR  --- 0 AODV 48 [0 ffffffff 1d 800] ------- [29:255 -1:255 28 0] [0x2 3 1 [49 0] [48 4]] (REQUEST)
r 2.564806591 _8_ RTR  --- 0 AODV 48 [0 ffffffff 1d 800] ------- [29:255 -1:255 28 0] [0x2 3 1 [49 0] [48 4]] (REQUEST)
r 2.565764489 _43_ RTR  --- 0 AODV 48 [0 ffffffff e 800] ------- [14:255 -1:255 28 0] [0x2 3 1 [49 0] [48 4]] (REQUEST)
r 2.565764854 _0_ RTR  --- 0 AODV 48 [0 ffffffff e 800] ------- [14:255 -1:255 28 0] [0x2 3 1 [49 0] [48 4]] (REQUEST)
r 2.565764899 _4_ RTR  --- 0 AODV 48 [0 ffffffff e 800] ------- [14:255 -1:255 28 0] [0x2 3 1 [49 0] [48 4]] (REQUEST)
r 2.565765131 _44_ RTR  --- 0 AODV 48 [0 ffffffff e 800] ------- [14:255 -1:255 28 0] [0x2 3 1 [49 0] [48 4]] (REQUEST)
r 2.565765162 _29_ RTR  --- 0 AODV 48 [0 ffffffff e 800] ------- [14:255 -1:255 28 0] [0x2 3 1 [49 0] [48 4]] (REQUEST)
r 2.565765270 _32_ RTR  --- 0 AODV 48 [0 ffffffff e 800] ------- [14:255 -1:255 28 0] [0x2 3 1 [49 0] [48 4]] (REQUEST)
r 2.565765287 _23_ RTR  --- 0 AODV 48 [0 ffffffff e 800] ------- [14:255 -1:255 28 0] [0x2 3 1 [49 0] [48 4]] (REQUEST)
s 2.565819051 _5_ RTR  --- 0 AODV 48 [0 ffffffff 30 800] ------- [5:255 -1:255 29 0] [0x2 2 1 [49 0] [48 4]] (REQUEST)
s 2.565992412 _19_ RTR  --- 0 AODV 48 [0 ffffffff 30 800] ------- [19:255 -1:255 29 0] [0x2 2 1 [49 0] [48 4]] (REQUEST)
r 2.566843241 _14_ RTR  --- 0 AODV 48 [0 ffffffff 0 800] ------- [0:255 -1:255 28 0] [0x2 3 1 [49 0] [48 4]] (REQUEST)
r 2.566843260 _43_ RTR  --- 0 AODV 48 [0 ffffffff 0 800] ------- [0:255 -1:255 28 0] [0x2 3 1 [49 0] [48 4]] (REQUEST)
r 2.566843465 _29_ RTR  --- 0 AODV 48 [0 ffffffff 0 800] ------- [0:255 -1:255 28 0] [0x2 3 1 [49 0] [48 4]] (REQUEST)
r 2.566843566 _32_ RTR  --- 0 AODV 48 [0 ffffffff 0 800] ------- [0:255 -1:255 28 0] [0x2 3 1 [49 0] [48 4]] (REQUEST)
r 2.566843568 _31_ RTR  --- 0 AODV 48 [0 ffffffff 0 800] ------- [0:255 -1:255 28 0] [0x2 3 1 [49 0] [48 4]] (REQUEST)
r 2.566843581 _41_ RTR  --- 0 AODV 48 [0 ffffffff 0 800] ------- [0:255 -1:255 28 0] [0x2 3 1 [49 0] [48 4]] (REQUEST)
r 2.566843591 _23_ RTR  --- 0 AODV 48 [0 ffffffff 0 800] ------- [0:255 -1:255 28 0] [0x2 3 1 [49 0] [48 4]] (REQUEST)
r 2.566843611 _4_ RTR  --- 0 AODV 48 [0 ffffffff 0 800] ------- [0:255 -1:255 28 0] [0x2 3 1 [49 0] [48 4]] (REQUEST)
r 2.566843682 _44_ RTR  --- 0 AODV 48 [0 ffffffff 0 800] ------- [0:255 -1:255 28 0] [0x2 3 1 [49 0] [48 4]] (REQUEST)
s 2.567387317 _1_ RTR  --- 0 AODV 48 [0 ffffffff 1d 800] ------- [1:255 -1:255 27 0] [0x2 4 1 [49 0] [48 4]] (REQUEST)
r 2.568466142 _29_ RTR  --- 0 AODV 48 [0 ffffffff 13 800] ------- [19:255 -1:255 29 0] [0x2 2 1 [49 0] [48 4]] (REQUEST)
r 2.568466191 _5_ RTR  --- 0 AODV 48 [0 ffffffff 13 800] ------- [19:255 -1:255 29 0] [0x2 2 1 [49 0] [48 4]] (REQUEST)
r 2.568466283 _21_ RTR  --- 0 AODV 48 [0 ffffffff 13 800] ------- [19:255 -1:255 29 0] [0x2 2 1 [49 0] [48 4]] (REQUEST)
r 2.568466341 _44_ RTR  --- 0 AODV 48 [0 ffffffff 13 800] ------- [19:255 -1:255 29 0] [0x2 2 1 [49 0] [48 4]] (REQUEST)
r 2.568466349 _8_ RTR  --- 0 AODV 48 [0 ffffffff 13 800] ------- [19:255 -1:255 29 0] [0x2 2 1 [49 0] [48 4]] (REQUEST)
r 2.568466516 _10_ RTR  --- 0 AODV 48 [0 ffffffff 13 800] ------- [19:255 -1:255 29 0] [0x2 2 1 [49 0] [48 4]] (REQUEST)
r 2.568466520 _47_ RTR  --- 0 AODV 48 [0 ffffffff 13 800] ------- [19:255 -1:255 29 0] [0x2 2 1 [49 0] [48 4]] (REQUEST)
r 2.568466536 _40_ RTR  --- 0 AODV 48 [0 ffffffff 13 800] ------- [19:255 -1:255 29 0] [0x2 2 1 [49 0] [48 4]] (REQUEST)
r 2.568466552 _1_ RTR  --- 0 AODV 48 [0 ffffffff 13 800] ------- [19:255 -1:255 29 0] [0x2 2 1 [49 0] [48 4]] (REQUEST)
r 2.568466559 _7_ RTR  --- 0 AODV 48 [0 ffffffff 13 800] ------- [19:255 -1:255 29 0] [0x2 2 1 [49 0] [48 4]] (REQUEST)
r 2.568466576 _48_ RTR  --- 0 AODV 48 [0 ffffffff 13 800] ------- [19:255 -1:255 29 0] [0x2 2 1 [49 0] [48 4]] (REQUEST)
s 2.568546547 _43_ RTR  --- 0 AODV 48 [0 ffffffff 2c 800] ------- [43:255 -1:255 28 0] [0x2 3 1 [49 0] [48 4]] (REQUEST)
s 2.568893296 _40_ RTR  --- 0 AODV 48 [0 ffffffff 1d 800] ------- [40:255 -1:255 27 0] [0x2 4 1 [49 0] [48 4]] (REQUEST)
r 2.569544428 _21_ RTR  --- 0 AODV 48 [0 ffffffff 5 800] ------- [5:255 -1:255 29 0] [0x2 2 1 [49 0] [48 4]] (REQUEST)
r 2.569544527 _8_ RTR  --- 0 AODV 48 [0 ffffffff 5 800] ------- [5:255 -1:255 29 0] [0x2 2 1 [49 0] [48 4]] (REQUEST)
r 2.569544578 _19_ RTR  --- 0 AODV 48 [0 ffffffff 5 800] ------- [5:255 -1:255 29 0] [0x2 2 1 [49 0] [48 4]] (REQUEST)
r 2.569544809 _48_ RTR  --- 0 AODV 48 [0 ffffffff 5 800] ------- [5:255 -1:255 29 0] [0x2 2 1 [49 0] [48 4]] (REQUEST)
r 2.569544841 _10_ RTR  --- 0 AODV 48 [0 ffffffff 5 800] ------- [5:255 -1:255 29 0] [0x2 2 1 [49 0] [48 4]] (REQUEST)
r 2.569544904 _47_ RTR  --- 0 AODV 48 [0 ffffffff 5 800] ------- [5:255 -1:255 29 0] [0x2 2 1 [49 0] [48 4]] (REQUEST)
r 2.569544909 _7_ RTR  --- 0 AODV 48 [0 ffffffff 5 800] ------- [5:255 -1:255 29 0] [0x2 2 1 [49 0] [48 4]] (REQUEST)
r 2.569544915 _29_ RTR  --- 0 AODV 48 [0 ffffffff 5 800] ------- [5:255 -1:255 29 0] [0x2 2 1 [49 0] [48 4]] (REQUEST)
r 2.569544972 _44_ RTR  --- 0 AODV 48 [0 ffffffff 5 800] ------- [5:255 -1:255 29 0] [0x2 2 1 [49 0] [48 4]] (REQUEST)
s 2.569558505 _47_ RTR  --- 0 AODV 48 [0 ffffffff 13 800] ------- [47:255 -1:255 28 0] [0x2 3 1 [49 0] [48 4]] (REQUEST)
s 2.569992954 _41_ RTR  --- 0 AODV 48 [0 ffffffff 1d 800] ------- [41:255 -1:255 27 0] [0x2 4 1 [49 0] [48 4]] (REQUEST)
r 2.570706571 _7_ RTR  --- 0 AODV 48 [0 ffffffff 2f 800] ------- [47:255 -1:255 28 0] [0x2 3 1 [49 0] [48 4]] (REQUEST)
r 2.570706615 _10_ RTR  --- 0 AODV 48 [0 ffffffff 2f 800] ------- [47:255 -1:255 28 0] [0x2 3 1 [49 0] [48 4]] (REQUEST)
r 2.570706764 _37_ RTR  --- 0 AODV 48 [0 ffffffff 2f 800] ------- [47:255 -1:255 28 0] [0x2 3 1 [49 0] [48 4]] (REQUEST)
r 2.570707098 _40_ RTR  --- 0 AODV 48 [0 ffffffff 2f 800] ------- [47:255 -1:255 28 0] [0x2 3 1 [49 0] [48 4]] (REQUEST)
r 2.570707133 _1_ RTR  --- 0 AODV 48 [0 ffffffff 2f 800] ------- [47:255 -1:255 28 0] [0x2 3 1 [49 0] [48 4]] (REQUEST)
r 2.570707177 _34_ RTR  --- 0 AODV 48 [0 ffffffff 2f 800] ------- [47:255 -1:255 28 0] [0x2 3 1 [49 0] [48 4]] (REQUEST)
r 2.570707218 _5_ RTR  --- 0 AODV 48 [0 ffffffff 2f 800] ------- [47:255 -1:255 28 0] [0x2 3 1 [49 0] [48 4]] (REQUEST)
r 2.570707221 _19_ RTR  --- 0 AODV 48 [0 ffffffff 2f 800] ------- [47:255 -1:255 28 0] [0x2 3 1 [49 0] [48 4]] (REQUEST)
r 2.570707244 _13_ RTR  --- 0 AODV 48 [0 ffffffff 2f 800] ------- [47:255 -1:255 28 0] [0x2 3 1 [49 0] [48 4]] (REQUEST)
s 2.570814848 _37_ RTR  --- 0 AODV 48 [0 ffffffff 2f 800] ------- [37:255 -1:255 27 0] [0x2 4 1 [49 0] [48 4]] (REQUEST)
r 2.571665169 _40_ RTR  --- 0 AODV 48 [0 ffffffff 1 800] ------- [1:255 -1:255 27 0] [0x2 4 1 [49 0] [48 4]] (REQUEST)
r 2.571665363 _41_ RTR  --- 0 AODV 48 [0 ffffffff 1 800] ------- [1:255 -1:255 27 0] [0x2 4 1 [49 0] [48 4]] (REQUEST)
r 2.571665594 _13_ RTR  --- 0 AODV 48 [0 ffffffff 1 800] ------- [1:255 -1:255 27 0] [0x2 4 1 [49 0] [48 4]] (REQUEST)
r 2.571665762 _47_ RTR  --- 0 AODV 48 [0 ffffffff 1 800] ------- [1:255 -1:255 27 0] [0x2 4 1 [49 0] [48 4]] (REQUEST)
r 2.571665800 _29_ RTR  --- 0 AODV 48 [0 ffffffff 1 800] ------- [1:255 -1:255 27 0] [0x2 4 1 [49 0] [48 4]] (REQUEST)
r 2.571665805 _42_ RTR  --- 0 AODV 48 [0 ffffffff 1 800] ------- [1:255 -1:255 27 0] [0x2 4 1 [49 0] [48 4]] (REQUEST)
r 2.571665827 _7_ RTR  --- 0 AODV 48 [0 ffffffff 1 800] ------- [1:255 -1:255 27 0] [0x2 4 1 [49 0] [48 4]] (REQUEST)
r 2.571665837 _46_ RTR  --- 0 AODV 48 [0 ffffffff 1 800] ------- [1:255 -1:255 27 0] [0x2 4 1 [49 0] [48 4]] (REQUEST)
r 2.571665860 _10_ RTR  --- 0 AODV 48 [0 ffffffff 1 800] ------- [1:255 -1:255 27 0] [0x2 4 1 [49 0] [48 4]] (REQUEST)
r 2.571665881 _19_ RTR  --- 0 AODV 48 [0 ffffffff 1 800] ------- [1:255 -1:255 27 0] [0x2 4 1 [49 0] [48 4]] (REQUEST)
r 2.571665892 _26_ RTR  --- 0 AODV 48 [0 ffffffff 1 800] ------- [1:255 -1:255 27 0] [0x2 4 1 [49 0] [48 4]] (REQUEST)
r 2.571665893 _37_ RTR  --- 0 AODV 48 [0 ffffffff 1 800] ------- [1:255 -1:255 27 0] [0x2 4 1 [49 0] [48 4]] (REQUEST)
r 2.571665960 _28_ RTR  --- 0 AODV 48 [0 ffffffff 1 800] ------- [1:255 -1:255 27 0] [0x2 4 1 [49 0] [48 4]] (REQUEST)
s 2.572508634 _7_ RTR  --- 0 AODV 48 [0 ffffffff 13 800] ------- [7:255 -1:255 28 0] [0x2 3 1 [49 0] [48 4]] (REQUEST)
s 2.572521706 _10_ RTR  --- 0 AODV 48 [0 ffffffff 13 800] ------- [10:255 -1:255 28 0] [0x2 3 1 [49 0] [48 4]] (REQUEST)
s 2.572687968 _4_ RTR  --- 0 AODV 48 [0 ffffffff e 800] ------- [4:255 -1:255 27 0] [0x2 4 1 [49 0] [48 4]] (REQUEST)
r 2.572844125 _7_ RTR  --- 0 AODV 48 [0 ffffffff 25 800] ------- [37:255 -1:255 27 0] [0x2 4 1 [49 0] [48 4]] (REQUEST)
r 2.572844152 _47_ RTR  --- 0 AODV 48 [0 ffffffff 25 800] ------- [37:255 -1:255 27 0] [0x2 4 1 [49 0] [48 4]] (REQUEST)
r 2.572844190 _10_ RTR  --- 0 AODV 48 [0 ffffffff 25 800] ------- [37:255 -1:255 27 0] [0x2 4 1 [49 0] [48 4]] (REQUEST)
r 2.572844355 _34_ RTR  --- 0 AODV 48 [0 ffffffff 25 800] ------- [37:255 -1:255 27 0] [0x2 4 1 [49 0] [48 4]] (REQUEST)
r 2.572844597 _13_ RTR  --- 0 AODV 48 [0 ffffffff 25 800] ------- [37:255 -1:255 27 0] [0x2 4 1 [49 0] [48 4]] (REQUEST)
r 2.573028748 _4_ RTR  --- 0 AODV 48 [0 ffffffff 2b 800] ------- [43:255 -1:255 28 0] [0x2 3 1 [49 0] [48 4]] (REQUEST)
r 2.573029139 _32_ RTR  --- 0 AODV 48 [0 ffffffff 2b 800] ------- [43:255 -1:255 28 0] [0x2 3 1 [49 0] [48 4]] (REQUEST)
r 2.573029156 _23_ RTR  --- 0 AODV 48 [0 ffffffff 2b 800] ------- [43:255 -1:255 28 0] [0x2 3 1 [49 0] [48 4]] (REQUEST)
s 2.573617057 _31_ RTR  --- 0 AODV 48 [0 ffffffff 0 800] ------- [31:255 -1:255 27 0] [0x2 4 1 [49 0] [48 4]] (REQUEST)
s 2.574063871 _13_ RTR  --- 0 AODV 48 [0 ffffffff 2f 800] ------- [13:255 -1:255 27 0] [0x2 4 1 [49 0] [48 4]] (REQUEST)
r 2.574147159 _43_ RTR  --- 0 AODV 48 [0 ffffffff 4 800] ------- [4:255 -1:255 27 0] [0x2 4 1 [49 0] [48 4]] (REQUEST)
r 2.574147181 _14_ RTR  --- 0 AODV 48 [0 ffffffff 4 800] ------- [4:255 -1:255 27 0] [0x2 4 1 [49 0] [48 4]] (REQUEST)
r 2.574147506 _0_ RTR  --- 0 AODV 48 [0 ffffffff 4 800] ------- [4:255 -1:255 27 0] [0x2 4 1 [49 0] [48 4]] (REQUEST)
r 2.574147539 _32_ RTR  --- 0 AODV 48 [0 ffffffff 4 800] ------- [4:255 -1:255 27 0] [0x2 4 1 [49 0] [48 4]] (REQUEST)
r 2.574147543 _23_ RTR  --- 0 AODV 48 [0 ffffffff 4 800] ------- [4:255 -1:255 27 0] [0x2 4 1 [49 0] [48 4]] (REQUEST)
s 2.574163539 _23_ RTR  --- 0 AODV 48 [0 ffffffff e 800] ------- [23:255 -1:255 27 0] [0x2 4 1 [49 0] [48 4]] (REQUEST)
s 2.574235742 _42_ RTR  --- 0 AODV 48 [0 ffffffff 1 800] ------- [42:255 -1:255 26 0] [0x2 5 1 [49 0] [48 4]] (REQUEST)
s 2.574385943 _32_ RTR  --- 0 AODV 48 [0 ffffffff e 800] ------- [32:255 -1:255 27 0] [0x2 4 1 [49 0] [48 4]] (REQUEST)
r 2.574452059 _7_ RTR  --- 0 AODV 48 [0 ffffffff a 800] ------- [10:255 -1:255 28 0] [0x2 3 1 [49 0] [48 4]] (REQUEST)
r 2.574452096 _47_ RTR  --- 0 AODV 48 [0 ffffffff a 800] ------- [10:255 -1:255 28 0] [0x2 3 1 [49 0] [48 4]] (REQUEST)
r 2.574452284 _37_ RTR  --- 0 AODV 48 [0 ffffffff a 800] ------- [10:255 -1:255 28 0] [0x2 3 1 [49 0] [48 4]] (REQUEST)
r 2.574452731 _34_ RTR  --- 0 AODV 48 [0 ffffffff a 800] ------- [10:255 -1:255 28 0] [0x2 3 1 [49 0] [48 4]] (REQUEST)
r 2.575391566 _32_ RTR  --- 0 AODV 48 [0 ffffffff 17 800] ------- [23:255 -1:255 27 0] [0x2 4 1 [49 0] [48 4]] (REQUEST)
r 2.575391879 _31_ RTR  --- 0 AODV 48 [0 ffffffff 17 800] ------- [23:255 -1:255 27 0] [0x2 4 1 [49 0] [48 4]] (REQUEST)
r 2.575392231 _9_ RTR  --- 0 AODV 48 [0 ffffffff 17 800] ------- [23:255 -1:255 27 0] [0x2 4 1 [49 0] [48 4]] (REQUEST)
r 2.575392276 _0_ RTR  --- 0 AODV 48 [0 ffffffff 17 800] ------- [23:255 -1:255 27 0] [0x2 4 1 [49 0] [48 4]] (REQUEST)
r 2.575392317 _3_ RTR  --- 0 AODV 48 [0 ffffffff 17 800] ------- [23:255 -1:255 27 0] [0x2 4 1 [49 0] [48 4]] (REQUEST)
r 2.575392326 _11_ RTR  --- 0 AODV 48 [0 ffffffff 17 800] ------- [23:255 -1:255 27 0] [0x2 4 1 [49 0] [48 4]] (REQUEST)
r 2.575392334 _4_ RTR  --- 0 AODV 48 [0 ffffffff 17 800] ------- [23:255 -1:255 27 0] [0x2 4 1 [49 0] [48 4]] (REQUEST)
r 2.575392358 _43_ RTR  --- 0 AODV 48 [0 ffffffff 17 800] ------- [23:255 -1:255 27 0] [0x2 4 1 [49 0] [48 4]] (REQUEST)
r 2.575392360 _14_ RTR  --- 0 AODV 48 [0 ffffffff 17 800] ------- [23:255 -1:255 27 0] [0x2 4 1 [49 0] [48 4]] (REQUEST)
r 2.575510126 _47_ RTR  --- 0 AODV 48 [0 ffffffff 7 800] ------- [7:255 -1:255 28 0] [0x2 3 1 [49 0] [48 4]] (REQUEST)
r 2.575510132 _10_ RTR  --- 0 AODV 48 [0 ffffffff 7 800] ------- [7:255 -1:255 28 0] [0x2 3 1 [49 0] [48 4]] (REQUEST)
r 2.575510292 _37_ RTR  --- 0 AODV 48 [0 ffffffff 7 800] ------- [7:255 -1:255 28 0] [0x2 3 1 [49 0] [48 4]] (REQUEST)
r 2.575510733 _34_ RTR  --- 0 AODV 48 [0 ffffffff 7 800] ------- [7:255 -1:255 28 0] [0x2 3 1 [49 0] [48 4]] (REQUEST)
r 2.575510777 _5_ RTR  --- 0 AODV 48 [0 ffffffff 7 800] ------- [7:255 -1:255 28 0] [0x2 3 1 [49 0] [48 4]] (REQUEST)
s 2.575893660 _11_ RTR  --- 0 AODV 48 [0 ffffffff 17 800] ------- [11:255 -1:255 26 0] [0x2 5 1 [49 0] [48 4]] (REQUEST)
r 2.576290202 _32_ RTR  --- 0 AODV 48 [0 ffffffff 1f 800] ------- [31:255 -1:255 27 0] [0x2 4 1 [49 0] [48 4]] (REQUEST)
r 2.576290218 _23_ RTR  --- 0 AODV 48 [0 ffffffff 1f 800] ------- [31:255 -1:255 27 0] [0x2 4 1 [49 0] [48 4]] (REQUEST)
r 2.576290288 _9_ RTR  --- 0 AODV 48 [0 ffffffff 1f 800] ------- [31:255 -1:255 27 0] [0x2 4 1 [49 0] [48 4]] (REQUEST)
r 2.576290396 _18_ RTR  --- 0 AODV 48 [0 ffffffff 1f 800] ------- [31:255 -1:255 27 0] [0x2 4 1 [49 0] [48 4]] (REQUEST)
r 2.576290471 _11_ RTR  --- 0 AODV 48 [0 ffffffff 1f 800] ------- [31:255 -1:255 27 0] [0x2 4 1 [49 0] [48 4]] (REQUEST)
r 2.576290545 _27_ RTR  --- 0 AODV 48 [0 ffffffff 1f 800] ------- [31:255 -1:255 27 0] [0x2 4 1 [49 0] [48 4]] (REQUEST)
r 2.576290593 _0_ RTR  --- 0 AODV 48 [0 ffffffff 1f 800] ------- [31:255 -1:255 27 0] [0x2 4 1 [49 0] [48 4]] (REQUEST)
s 2.576305800 _9_ RTR  --- 0 AODV 48 [0 ffffffff 17 800] ------- [9:255 -1:255 26 0] [0x2 5 1 [49 0] [48 4]] (REQUEST)
s 2.576657451 _34_ RTR  --- 0 AODV 48 [0 ffffffff 2f 800] ------- [34:255 -1:255 27 0] [0x2 4 1 [49 0] [48 4]] (REQUEST)
s 2.577114112 _26_ RTR  --- 0 AODV 48 [0 ffffffff 1 800] ------- [26:255 -1:255 26 0] [0x2 5 1 [49 0] [48 4]] (REQUEST)
s 2.577172546 _27_ RTR  --- 0 AODV 48 [0 ffffffff 1f 800] ------- [27:255 -1:255 26 0] [0x2 5 1 [49 0] [48 4]] (REQUEST)
r 2.577388560 _27_ RTR  --- 0 AODV 48 [0 ffffffff b 800] ------- [11:255 -1:255 26 0] [0x2 5 1 [49 0] [48 4]] (REQUEST)
r 2.577388734 _9_ RTR  --- 0 AODV 48 [0 ffffffff b 800] ------- [11:255 -1:255 26 0] [0x2 5 1 [49 0] [48 4]] (REQUEST)
r 2.577388890 _15_ RTR  --- 0 AODV 48 [0 ffffffff b 800] ------- [11:255 -1:255 26 0] [0x2 5 1 [49 0] [48 4]] (REQUEST)
r 2.577388940 _20_ RTR  --- 0 AODV 48 [0 ffffffff b 800] ------- [11:255 -1:255 26 0] [0x2 5 1 [49 0] [48 4]] (REQUEST)
r 2.577388980 _18_ RTR  --- 0 AODV 48 [0 ffffffff b 800] ------- [11:255 -1:255 26 0] [0x2 5 1 [49 0] [48 4]] (REQUEST)
r 2.577389064 _31_ RTR  --- 0 AODV 48 [0 ffffffff b 800] ------- [11:255 -1:255 26 0] [0x2 5 1 [49 0] [48 4]] (REQUEST)
r 2.577389147 _24_ RTR  --- 0 AODV 48 [0 ffffffff b 800] ------- [11:255 -1:255 26 0] [0x2 5 1 [49 0] [48 4]] (REQUEST)
r 2.577389166 _17_ RTR  --- 0 AODV 48 [0 ffffffff b 800] ------- [11:255 -1:255 26 0] [0x2 5 1 [49 0] [48 4]] (REQUEST)
r 2.577389254 _30_ RTR  --- 0 AODV 48 [0 ffffffff b 800] ------- [11:255 -1:255 26 0] [0x2 5 1 [49 0] [48 4]] (REQUEST)
r 2.577389258 _23_ RTR  --- 0 AODV 48 [0 ffffffff b 800] ------- [11:255 -1:255 26 0] [0x2 5 1 [49 0] [48 4]] (REQUEST)
r 2.577389261 _32_ RTR  --- 0 AODV 48 [0 ffffffff b 800] ------- [11:255 -1:255 26 0] [0x2 5 1 [49 0] [48 4]] (REQUEST)
r 2.577389290 _16_ RTR  --- 0 AODV 48 [0 ffffffff b 800] ------- [11:255 -1:255 26 0] [0x2 5 1 [49 0] [48 4]] (REQUEST)
r 2.577665914 _37_ RTR  --- 0 AODV 48 [0 ffffffff 22 800] ------- [34:255 -1:255 27 0] [0x2 4 1 [49 0] [48 4]] (REQUEST)
r 2.577665954 _28_ RTR  --- 0 AODV 48 [0 ffffffff 22 800] ------- [34:255 -1:255 27 0] [0x2 4 1 [49 0] [48 4]] (REQUEST)
r 2.577665975 _13_ RTR  --- 0 AODV 48 [0 ffffffff 22 800] ------- [34:255 -1:255 27 0] [0x2 4 1 [49 0] [48 4]] (REQUEST)
r 2.577666123 _45_ RTR  --- 0 AODV 48 [0 ffffffff 22 800] ------- [34:255 -1:255 27 0] [0x2 4 1 [49 0] [48 4]] (REQUEST)
r 2.577666123 _47_ RTR  --- 0 AODV 48 [0 ffffffff 22 800] ------- [34:255 -1:255 27 0] [0x2 4 1 [49 0] [48 4]] (REQUEST)
r 2.577666124 _7_ RTR  --- 0 AODV 48 [0 ffffffff 22 800] ------- [34:255 -1:255 27 0] [0x2 4 1 [49 0] [48 4]] (REQUEST)
r 2.577666187 _25_ RTR  --- 0 AODV 48 [0 ffffffff 22 800] ------- [34:255 -1:255 27 0] [0x2 4 1 [49 0] [48 4]] (REQUEST)
r 2.577666196 _10_ RTR  --- 0 AODV 48 [0 ffffffff 22 800] ------- [34:255 -1:255 27 0] [0x2 4 1 [49 0] [48 4]] (REQUEST)
r 2.577666248 _12_ RTR  --- 0 AODV 48 [0 ffffffff 22 800] ------- [34:255 -1:255 27 0] [0x2 4 1 [49 0] [48 4]] (REQUEST)
r 2.578366997 _11_ RTR  --- 0 AODV 48 [0 ffffffff 9 800] ------- [9:255 -1:255 26 0] [0x2 5 1 [49 0] [48 4]] (REQUEST)
r 2.578367009 _18_ RTR  --- 0 AODV 48 [0 ffffffff 9 800] ------- [9:255 -1:255 26 0] [0x2 5 1 [49 0] [48 4]] (REQUEST)
r 2.578367086 _27_ RTR  --- 0 AODV 48 [0 ffffffff 9 800] ------- [9:255 -1:255 26 0] [0x2 5 1 [49 0] [48 4]] (REQUEST)
r 2.578367144 _31_ RTR  --- 0 AODV 48 [0 ffffffff 9 800] ------- [9:255 -1:255 26 0] [0x2 5 1 [49 0] [48 4]] (REQUEST)
r 2.578367287 _17_ RTR  --- 0 AODV 48 [0 ffffffff 9 800] ------- [9:255 -1:255 26 0] [0x2 5 1 [49 0] [48 4]] (REQUEST)
r 2.578367319 _15_ RTR  --- 0 AODV 48 [0 ffffffff 9 800] ------- [9:255 -1:255 26 0] [0x2 5 1 [49 0] [48 4]] (REQUEST)
r 2.578367361 _20_ RTR  --- 0 AODV 48 [0 ffffffff 9 800] ------- [9:255 -1:255 26 0] [0x2 5 1 [49 0] [48 4]] (REQUEST)
r 2.578367420 _32_ RTR  --- 0 AODV 48 [0 ffffffff 9 800] ------- [9:255 -1:255 26 0] [0x2 5 1 [49 0] [48 4]] (REQUEST)
r 2.578367425 _23_ RTR  --- 0 AODV 48 [0 ffffffff 9 800] ------- [9:255 -1:255 26 0] [0x2 5 1 [49 0] [48 4]] (REQUEST)
r 2.578367428 _16_ RTR  --- 0 AODV 48 [0 ffffffff 9 800] ------- [9:255 -1:255 26 0] [0x2 5 1 [49 0] [48 4]] (REQUEST)
r 2.578367499 _24_ RTR  --- 0 AODV 48 [0 ffffffff 9 800] ------- [9:255 -1:255 26 0] [0x2 5 1 [49 0] [48 4]] (REQUEST)
s 2.578652569 _46_ RTR  --- 0 AODV 48 [0 ffffffff 1 800] ------- [46:255 -1:255 26 0] [0x2 5 1 [49 0] [48 4]] (REQUEST)
s 2.579166007 _45_ RTR  --- 0 AODV 48 [0 ffffffff 22 800] ------- [45:255 -1:255 26 0] [0x2 5 1 [49 0] [48 4]] (REQUEST)
r 2.579425447 _23_ RTR  --- 0 AODV 48 [0 ffffffff 20 800] ------- [32:255 -1:255 27 0] [0x2 4 1 [49 0] [48 4]] (REQUEST)
r 2.579425743 _31_ RTR  --- 0 AODV 48 [0 ffffffff 20 800] ------- [32:255 -1:255 27 0] [0x2 4 1 [49 0] [48 4]] (REQUEST)
r 2.579426106 _9_ RTR  --- 0 AODV 48 [0 ffffffff 20 800] ------- [32:255 -1:255 27 0] [0x2 4 1 [49 0] [48 4]] (REQUEST)
r 2.579426132 _0_ RTR  --- 0 AODV 48 [0 ffffffff 20 800] ------- [32:255 -1:255 27 0] [0x2 4 1 [49 0] [48 4]] (REQUEST)
r 2.579426210 _11_ RTR  --- 0 AODV 48 [0 ffffffff 20 800] ------- [32:255 -1:255 27 0] [0x2 4 1 [49 0] [48 4]] (REQUEST)
r 2.579426211 _4_ RTR  --- 0 AODV 48 [0 ffffffff 20 800] ------- [32:255 -1:255 27 0] [0x2 4 1 [49 0] [48 4]] (REQUEST)
r 2.579426220 _3_ RTR  --- 0 AODV 48 [0 ffffffff 20 800] ------- [32:255 -1:255 27 0] [0x2 4 1 [49 0] [48 4]] (REQUEST)
r 2.579426222 _43_ RTR  --- 0 AODV 48 [0 ffffffff 20 800] ------- [32:255 -1:255 27 0] [0x2 4 1 [49 0] [48 4]] (REQUEST)
r 2.579426223 _14_ RTR  --- 0 AODV 48 [0 ffffffff 20 800] ------- [32:255 -1:255 27 0] [0x2 4 1 [49 0] [48 4]] (REQUEST)
s 2.580309534 _3_ RTR  --- 0 AODV 48 [0 ffffffff 17 800] ------- [3:255 -1:255 26 0] [0x2 5 1 [49 0] [48 4]] (REQUEST)
r 2.580334234 _25_ RTR  --- 0 AODV 48 [0 ffffffff 2d 800] ------- [45:255 -1:255 26 0] [0x2 5 1 [49 0] [48 4]] (REQUEST)
r 2.580334397 _12_ RTR  --- 0 AODV 48 [0 ffffffff 2d 800] ------- [45:255 -1:255 26 0] [0x2 5 1 [49 0] [48 4]] (REQUEST)
r 2.580334445 _2_ RTR  --- 0 AODV 48 [0 ffffffff 2d 800] ------- [45:255 -1:255 26 0] [0x2 5 1 [49 0] [48 4]] (REQUEST)
r 2.580334533 _39_ RTR  --- 0 AODV 48 [0 ffffffff 2d 800] ------- [45:255 -1:255 26 0] [0x2 5 1 [49 0] [48 4]] (REQUEST)
r 2.580334639 _28_ RTR  --- 0 AODV 48 [0 ffffffff 2d 800] ------- [45:255 -1:255 26 0] [0x2 5 1 [49 0] [48 4]] (REQUEST)
r 2.580334679 _34_ RTR  --- 0 AODV 48 [0 ffffffff 2d 800] ------- [45:255 -1:255 26 0] [0x2 5 1 [49 0] [48 4]] (REQUEST)
s 2.580432517 _28_ RTR  --- 0 AODV 48 [0 ffffffff 1 800] ------- [28:255 -1:255 26 0] [0x2 5 1 [49 0] [48 4]] (REQUEST)
s 2.580502596 _18_ RTR  --- 0 AODV 48 [0 ffffffff 1f 800] ------- [18:255 -1:255 26 0] [0x2 5 1 [49 0] [48 4]] (REQUEST)
s 2.580662457 _39_ RTR  --- 0 AODV 48 [0 ffffffff 2d 800] ------- [39:255 -1:255 25 0] [0x2 6 1 [49 0] [48 4]] (REQUEST)
s 2.580949733 _24_ RTR  --- 0 AODV 48 [0 ffffffff b 800] ------- [24:255 -1:255 25 0] [0x2 6 1 [49 0] [48 4]] (REQUEST)
r 2.581048349 _11_ RTR  --- 0 AODV 48 [0 ffffffff 1b 800] ------- [27:255 -1:255 26 0] [0x2 5 1 [49 0] [48 4]] (REQUEST)
r 2.581048612 _9_ RTR  --- 0 AODV 48 [0 ffffffff 1b 800] ------- [27:255 -1:255 26 0] [0x2 5 1 [49 0] [48 4]] (REQUEST)
r 2.581048648 _15_ RTR  --- 0 AODV 48 [0 ffffffff 1b 800] ------- [27:255 -1:255 26 0] [0x2 5 1 [49 0] [48 4]] (REQUEST)
r 2.581048700 _20_ RTR  --- 0 AODV 48 [0 ffffffff 1b 800] ------- [27:255 -1:255 26 0] [0x2 5 1 [49 0] [48 4]] (REQUEST)
r 2.581048854 _18_ RTR  --- 0 AODV 48 [0 ffffffff 1b 800] ------- [27:255 -1:255 26 0] [0x2 5 1 [49 0] [48 4]] (REQUEST)
r 2.581048927 _31_ RTR  --- 0 AODV 48 [0 ffffffff 1b 800] ------- [27:255 -1:255 26 0] [0x2 5 1 [49 0] [48 4]] (REQUEST)
r 2.581048928 _24_ RTR  --- 0 AODV 48 [0 ffffffff 1b 800] ------- [27:255 -1:255 26 0] [0x2 5 1 [49 0] [48 4]] (REQUEST)
r 2.581049019 _17_ RTR  --- 0 AODV 48 [0 ffffffff 1b 800] ------- [27:255 -1:255 26 0] [0x2 5 1 [49 0] [48 4]] (REQUEST)
r 2.581049027 _30_ RTR  --- 0 AODV 48 [0 ffffffff 1b 800] ------- [27:255 -1:255 26 0] [0x2 5 1 [49 0] [48 4]] (REQUEST)
r 2.581540733 _42_ RTR  --- 0 AODV 48 [0 ffffffff 1c 800] ------- [28:255 -1:255 26 0] [0x2 5 1 [49 0] [48 4]] (REQUEST)
r 2.581540884 _13_ RTR  --- 0 AODV 48 [0 ffffffff 1c 800] ------- [28:255 -1:255 26 0] [0x2 5 1 [49 0] [48 4]] (REQUEST)
r 2.581540990 _12_ RTR  --- 0 AODV 48 [0 ffffffff 1c 800] ------- [28:255 -1:255 26 0] [0x2 5 1 [49 0] [48 4]] (REQUEST)
r 2.581541019 _34_ RTR  --- 0 AODV 48 [0 ffffffff 1c 800] ------- [28:255 -1:255 26 0] [0x2 5 1 [49 0] [48 4]] (REQUEST)
r 2.581541029 _2_ RTR  --- 0 AODV 48 [0 ffffffff 1c 800] ------- [28:255 -1:255 26 0] [0x2 5 1 [49 0] [48 4]] (REQUEST)
r 2.581541041 _25_ RTR  --- 0 AODV 48 [0 ffffffff 1c 800] ------- [28:255 -1:255 26 0] [0x2 5 1 [49 0] [48 4]] (REQUEST)
r 2.581541044 _39_ RTR  --- 0 AODV 48 [0 ffffffff 1c 800] ------- [28:255 -1:255 26 0] [0x2 5 1 [49 0] [48 4]] (REQUEST)
r 2.581541149 _45_ RTR  --- 0 AODV 48 [0 ffffffff 1c 800] ------- [28:255 -1:255 26 0] [0x2 5 1 [49 0] [48 4]] (REQUEST)
r 2.581541342 _40_ RTR  --- 0 AODV 48 [0 ffffffff 1c 800] ------- [28:255 -1:255 26 0] [0x2 5 1 [49 0] [48 4]] (REQUEST)
r 2.581541344 _1_ RTR  --- 0 AODV 48 [0 ffffffff 1c 800] ------- [28:255 -1:255 26 0] [0x2 5 1 [49 0] [48 4]] (REQUEST)
s 2.581729962 _25_ RTR  --- 0 AODV 48 [0 ffffffff 22 800] ------- [25:255 -1:255 26 0] [0x2 5 1 [49 0] [48 4]] (REQUEST)
r 2.582087047 _30_ RTR  --- 0 AODV 48 [0 ffffffff 18 800] ------- [24:255 -1:255 25 0] [0x2 6 1 [49 0] [48 4]] (REQUEST)
r 2.582087184 _20_ RTR  --- 0 AODV 48 [0 ffffffff 18 800] ------- [24:255 -1:255 25 0] [0x2 6 1 [49 0] [48 4]] (REQUEST)
r 2.582087229 _15_ RTR  --- 0 AODV 48 [0 ffffffff 18 800] ------- [24:255 -1:255 25 0] [0x2 6 1 [49 0] [48 4]] (REQUEST)
r 2.582087440 _36_ RTR  --- 0 AODV 48 [0 ffffffff 18 800] ------- [24:255 -1:255 25 0] [0x2 6 1 [49 0] [48 4]] (REQUEST)
r 2.582087529 _17_ RTR  --- 0 AODV 48 [0 ffffffff 18 800] ------- [24:255 -1:255 25 0] [0x2 6 1 [49 0] [48 4]] (REQUEST)
r 2.582087541 _33_ RTR  --- 0 AODV 48 [0 ffffffff 18 800] ------- [24:255 -1:255 25 0] [0x2 6 1 [49 0] [48 4]] (REQUEST)
r 2.582087594 _49_ RTR  --- 0 AODV 48 [0 ffffffff 18 800] ------- [24:255 -1:255 25 0] [0x2 6 1 [49 0] [48 4]] (REQUEST)
s 2.582087594 _49_ RTR  --- 0 AODV 44 [0 0 0 0] ------- [49:255 48:255 30 24] [0x4 1 [49 4] 10.000000] (REPLY)
r 2.582087595 _27_ RTR  --- 0 AODV 48 [0 ffffffff 18 800] ------- [24:255 -1:255 25 0] [0x2 6 1 [49 0] [48 4]] (REQUEST)